LAMMPS data file. CGCMM style. atom_style full generated by VMD/TopoTools v1.7 on Fri Sep 29 14:18:23 CEST 2017
 30 atoms
 18 bonds
 18 angles
 0 dihedrals
 6 impropers
 3 atom types
 1 bond types
 1 angle types
 0 dihedral types
 1 improper types
 -1.247500 3.742500  xlo xhi
 -0.720466 3.601000  ylo yhi
 -0.711000 16.351000  zlo zhi
 -2.495000 0.000000 0.000000 xy xz yz

# Pair Coeffs
#
# 1  CAL
# 2  CO
# 3  OC

# Bond Coeffs
#
# 1  CO-OC

# Angle Coeffs
#
# 1  OC-CO-OC

# Improper Coeffs
#
# 1  CO-OC-OC-OC

 Masses

 1 40.080002 # CAL
 2 12.010000 # CO
 3 16.000000 # OC

 Atoms # full

1 1 1 2.000000 0.000000 0.000000 0.000000 # CAL CAL
2 2 1 2.000000 0.000000 0.000000 8.531000 # CAL CAL
3 3 1 2.000000 2.495000 1.440000 5.687000 # CAL CAL
4 4 1 2.000000 2.495000 1.440000 14.218000 # CAL CAL
5 5 1 2.000000 0.000000 2.881000 11.374000 # CAL CAL
6 6 1 2.000000 0.000000 2.881000 2.844000 # CAL CAL
7 7 2 1.123285 0.000000 0.000000 4.265000 # CO CO3
8 7 3 -1.041095 1.286000 0.000000 4.265000 # OC CO3
9 7 3 -1.041095 -0.643000 1.114000 4.265000 # OC CO3
10 7 3 -1.041095 -0.643000 -1.114466 4.265000 # OC CO3
11 8 2 1.123285 0.000000 0.000000 12.796000 # CO CO3
12 8 3 -1.041095 -1.286000 0.000000 12.796000 # OC CO3
13 8 3 -1.041095 0.643000 -1.114466 12.796000 # OC CO3
14 8 3 -1.041095 0.643000 1.114000 12.796000 # OC CO3
15 9 2 1.123285 2.495000 1.440000 9.953000 # CO CO3
16 9 3 -1.041095 3.781000 1.440000 9.953000 # OC CO3
17 9 3 -1.041095 1.852000 2.555000 9.953000 # OC CO3
18 9 3 -1.041095 1.852000 0.326000 9.953000 # OC CO3
19 10 2 1.123285 2.495000 1.440000 1.422000 # CO CO3
20 10 3 -1.041095 1.209000 1.440000 1.422000 # OC CO3
21 10 3 -1.041095 3.138000 0.326000 1.422000 # OC CO3
22 10 3 -1.041095 3.138000 2.555000 1.422000 # OC CO3
23 11 2 1.123285 0.000000 2.881000 15.640000 # CO CO3
24 11 3 -1.041095 1.286000 2.881000 15.640000 # OC CO3
25 11 3 -1.041095 -0.643000 3.995000 15.640000 # OC CO3
26 11 3 -1.041095 -0.643000 1.767000 15.640000 # OC CO3
27 12 2 1.123285 0.000000 2.881000 7.109000 # CO CO3
28 12 3 -1.041095 -1.286000 2.881000 7.109000 # OC CO3
29 12 3 -1.041095 0.643000 1.767000 7.109000 # OC CO3
30 12 3 -1.041095 0.643000 3.995000 7.109000 # OC CO3

 Bonds

1 1 7 9
2 1 7 10
3 1 7 8
4 1 11 12
5 1 11 13
6 1 11 14
7 1 15 18
8 1 15 17
9 1 15 16
10 1 19 20
11 1 19 22
12 1 19 21
13 1 23 26
14 1 23 24
15 1 23 25
16 1 27 28
17 1 27 29
18 1 27 30

 Angles

1 1 9 7 10
2 1 8 7 9
3 1 8 7 10
4 1 12 11 13
5 1 12 11 14
6 1 13 11 14
7 1 17 15 18
8 1 16 15 18
9 1 16 15 17
10 1 20 19 22
11 1 20 19 21
12 1 21 19 22
13 1 24 23 26
14 1 25 23 26
15 1 24 23 25
16 1 28 27 29
17 1 28 27 30
18 1 29 27 30

 Impropers

1 1 7 8 9 10
2 1 11 12 13 14
3 1 15 16 17 18
4 1 19 20 21 22
5 1 23 24 25 26
6 1 27 28 29 30

